# vtk DataFile Version 3.0
#This file was generated by the FVM solver (Authors: T. Xue, Y. Tao and J. Wu)
ASCII
DATASET UNSTRUCTURED_GRID

POINTS 4096 double
0 0 0
0.03125 0 0
0 0.03125 0
0.03125 0.03125 0
0.03125 0 0
0.0625 0 0
0.03125 0.03125 0
0.0625 0.03125 0
0.0625 0 0
0.09375 0 0
0.0625 0.03125 0
0.09375 0.03125 0
0.09375 0 0
0.125 0 0
0.09375 0.03125 0
0.125 0.03125 0
0.125 0 0
0.15625 0 0
0.125 0.03125 0
0.15625 0.03125 0
0.15625 0 0
0.1875 0 0
0.15625 0.03125 0
0.1875 0.03125 0
0.1875 0 0
0.21875 0 0
0.1875 0.03125 0
0.21875 0.03125 0
0.21875 0 0
0.25 0 0
0.21875 0.03125 0
0.25 0.03125 0
0.25 0 0
0.28125 0 0
0.25 0.03125 0
0.28125 0.03125 0
0.28125 0 0
0.3125 0 0
0.28125 0.03125 0
0.3125 0.03125 0
0.3125 0 0
0.34375 0 0
0.3125 0.03125 0
0.34375 0.03125 0
0.34375 0 0
0.375 0 0
0.34375 0.03125 0
0.375 0.03125 0
0.375 0 0
0.40625 0 0
0.375 0.03125 0
0.40625 0.03125 0
0.40625 0 0
0.4375 0 0
0.40625 0.03125 0
0.4375 0.03125 0
0.4375 0 0
0.46875 0 0
0.4375 0.03125 0
0.46875 0.03125 0
0.46875 0 0
0.5 0 0
0.46875 0.03125 0
0.5 0.03125 0
0.5 0 0
0.53125 0 0
0.5 0.03125 0
0.53125 0.03125 0
0.53125 0 0
0.5625 0 0
0.53125 0.03125 0
0.5625 0.03125 0
0.5625 0 0
0.59375 0 0
0.5625 0.03125 0
0.59375 0.03125 0
0.59375 0 0
0.625 0 0
0.59375 0.03125 0
0.625 0.03125 0
0.625 0 0
0.65625 0 0
0.625 0.03125 0
0.65625 0.03125 0
0.65625 0 0
0.6875 0 0
0.65625 0.03125 0
0.6875 0.03125 0
0.6875 0 0
0.71875 0 0
0.6875 0.03125 0
0.71875 0.03125 0
0.71875 0 0
0.75 0 0
0.71875 0.03125 0
0.75 0.03125 0
0.75 0 0
0.78125 0 0
0.75 0.03125 0
0.78125 0.03125 0
0.78125 0 0
0.8125 0 0
0.78125 0.03125 0
0.8125 0.03125 0
0.8125 0 0
0.84375 0 0
0.8125 0.03125 0
0.84375 0.03125 0
0.84375 0 0
0.875 0 0
0.84375 0.03125 0
0.875 0.03125 0
0.875 0 0
0.90625 0 0
0.875 0.03125 0
0.90625 0.03125 0
0.90625 0 0
0.9375 0 0
0.90625 0.03125 0
0.9375 0.03125 0
0.9375 0 0
0.96875 0 0
0.9375 0.03125 0
0.96875 0.03125 0
0.96875 0 0
1 0 0
0.96875 0.03125 0
1 0.03125 0
0 0.03125 0
0.03125 0.03125 0
0 0.0625 0
0.03125 0.0625 0
0.03125 0.03125 0
0.0625 0.03125 0
0.03125 0.0625 0
0.0625 0.0625 0
0.0625 0.03125 0
0.09375 0.03125 0
0.0625 0.0625 0
0.09375 0.0625 0
0.09375 0.03125 0
0.125 0.03125 0
0.09375 0.0625 0
0.125 0.0625 0
0.125 0.03125 0
0.15625 0.03125 0
0.125 0.0625 0
0.15625 0.0625 0
0.15625 0.03125 0
0.1875 0.03125 0
0.15625 0.0625 0
0.1875 0.0625 0
0.1875 0.03125 0
0.21875 0.03125 0
0.1875 0.0625 0
0.21875 0.0625 0
0.21875 0.03125 0
0.25 0.03125 0
0.21875 0.0625 0
0.25 0.0625 0
0.25 0.03125 0
0.28125 0.03125 0
0.25 0.0625 0
0.28125 0.0625 0
0.28125 0.03125 0
0.3125 0.03125 0
0.28125 0.0625 0
0.3125 0.0625 0
0.3125 0.03125 0
0.34375 0.03125 0
0.3125 0.0625 0
0.34375 0.0625 0
0.34375 0.03125 0
0.375 0.03125 0
0.34375 0.0625 0
0.375 0.0625 0
0.375 0.03125 0
0.40625 0.03125 0
0.375 0.0625 0
0.40625 0.0625 0
0.40625 0.03125 0
0.4375 0.03125 0
0.40625 0.0625 0
0.4375 0.0625 0
0.4375 0.03125 0
0.46875 0.03125 0
0.4375 0.0625 0
0.46875 0.0625 0
0.46875 0.03125 0
0.5 0.03125 0
0.46875 0.0625 0
0.5 0.0625 0
0.5 0.03125 0
0.53125 0.03125 0
0.5 0.0625 0
0.53125 0.0625 0
0.53125 0.03125 0
0.5625 0.03125 0
0.53125 0.0625 0
0.5625 0.0625 0
0.5625 0.03125 0
0.59375 0.03125 0
0.5625 0.0625 0
0.59375 0.0625 0
0.59375 0.03125 0
0.625 0.03125 0
0.59375 0.0625 0
0.625 0.0625 0
0.625 0.03125 0
0.65625 0.03125 0
0.625 0.0625 0
0.65625 0.0625 0
0.65625 0.03125 0
0.6875 0.03125 0
0.65625 0.0625 0
0.6875 0.0625 0
0.6875 0.03125 0
0.71875 0.03125 0
0.6875 0.0625 0
0.71875 0.0625 0
0.71875 0.03125 0
0.75 0.03125 0
0.71875 0.0625 0
0.75 0.0625 0
0.75 0.03125 0
0.78125 0.03125 0
0.75 0.0625 0
0.78125 0.0625 0
0.78125 0.03125 0
0.8125 0.03125 0
0.78125 0.0625 0
0.8125 0.0625 0
0.8125 0.03125 0
0.84375 0.03125 0
0.8125 0.0625 0
0.84375 0.0625 0
0.84375 0.03125 0
0.875 0.03125 0
0.84375 0.0625 0
0.875 0.0625 0
0.875 0.03125 0
0.90625 0.03125 0
0.875 0.0625 0
0.90625 0.0625 0
0.90625 0.03125 0
0.9375 0.03125 0
0.90625 0.0625 0
0.9375 0.0625 0
0.9375 0.03125 0
0.96875 0.03125 0
0.9375 0.0625 0
0.96875 0.0625 0
0.96875 0.03125 0
1 0.03125 0
0.96875 0.0625 0
1 0.0625 0
0 0.0625 0
0.03125 0.0625 0
0 0.09375 0
0.03125 0.09375 0
0.03125 0.0625 0
0.0625 0.0625 0
0.03125 0.09375 0
0.0625 0.09375 0
0.0625 0.0625 0
0.09375 0.0625 0
0.0625 0.09375 0
0.09375 0.09375 0
0.09375 0.0625 0
0.125 0.0625 0
0.09375 0.09375 0
0.125 0.09375 0
0.125 0.0625 0
0.15625 0.0625 0
0.125 0.09375 0
0.15625 0.09375 0
0.15625 0.0625 0
0.1875 0.0625 0
0.15625 0.09375 0
0.1875 0.09375 0
0.1875 0.0625 0
0.21875 0.0625 0
0.1875 0.09375 0
0.21875 0.09375 0
0.21875 0.0625 0
0.25 0.0625 0
0.21875 0.09375 0
0.25 0.09375 0
0.25 0.0625 0
0.28125 0.0625 0
0.25 0.09375 0
0.28125 0.09375 0
0.28125 0.0625 0
0.3125 0.0625 0
0.28125 0.09375 0
0.3125 0.09375 0
0.3125 0.0625 0
0.34375 0.0625 0
0.3125 0.09375 0
0.34375 0.09375 0
0.34375 0.0625 0
0.375 0.0625 0
0.34375 0.09375 0
0.375 0.09375 0
0.375 0.0625 0
0.40625 0.0625 0
0.375 0.09375 0
0.40625 0.09375 0
0.40625 0.0625 0
0.4375 0.0625 0
0.40625 0.09375 0
0.4375 0.09375 0
0.4375 0.0625 0
0.46875 0.0625 0
0.4375 0.09375 0
0.46875 0.09375 0
0.46875 0.0625 0
0.5 0.0625 0
0.46875 0.09375 0
0.5 0.09375 0
0.5 0.0625 0
0.53125 0.0625 0
0.5 0.09375 0
0.53125 0.09375 0
0.53125 0.0625 0
0.5625 0.0625 0
0.53125 0.09375 0
0.5625 0.09375 0
0.5625 0.0625 0
0.59375 0.0625 0
0.5625 0.09375 0
0.59375 0.09375 0
0.59375 0.0625 0
0.625 0.0625 0
0.59375 0.09375 0
0.625 0.09375 0
0.625 0.0625 0
0.65625 0.0625 0
0.625 0.09375 0
0.65625 0.09375 0
0.65625 0.0625 0
0.6875 0.0625 0
0.65625 0.09375 0
0.6875 0.09375 0
0.6875 0.0625 0
0.71875 0.0625 0
0.6875 0.09375 0
0.71875 0.09375 0
0.71875 0.0625 0
0.75 0.0625 0
0.71875 0.09375 0
0.75 0.09375 0
0.75 0.0625 0
0.78125 0.0625 0
0.75 0.09375 0
0.78125 0.09375 0
0.78125 0.0625 0
0.8125 0.0625 0
0.78125 0.09375 0
0.8125 0.09375 0
0.8125 0.0625 0
0.84375 0.0625 0
0.8125 0.09375 0
0.84375 0.09375 0
0.84375 0.0625 0
0.875 0.0625 0
0.84375 0.09375 0
0.875 0.09375 0
0.875 0.0625 0
0.90625 0.0625 0
0.875 0.09375 0
0.90625 0.09375 0
0.90625 0.0625 0
0.9375 0.0625 0
0.90625 0.09375 0
0.9375 0.09375 0
0.9375 0.0625 0
0.96875 0.0625 0
0.9375 0.09375 0
0.96875 0.09375 0
0.96875 0.0625 0
1 0.0625 0
0.96875 0.09375 0
1 0.09375 0
0 0.09375 0
0.03125 0.09375 0
0 0.125 0
0.03125 0.125 0
0.03125 0.09375 0
0.0625 0.09375 0
0.03125 0.125 0
0.0625 0.125 0
0.0625 0.09375 0
0.09375 0.09375 0
0.0625 0.125 0
0.09375 0.125 0
0.09375 0.09375 0
0.125 0.09375 0
0.09375 0.125 0
0.125 0.125 0
0.125 0.09375 0
0.15625 0.09375 0
0.125 0.125 0
0.15625 0.125 0
0.15625 0.09375 0
0.1875 0.09375 0
0.15625 0.125 0
0.1875 0.125 0
0.1875 0.09375 0
0.21875 0.09375 0
0.1875 0.125 0
0.21875 0.125 0
0.21875 0.09375 0
0.25 0.09375 0
0.21875 0.125 0
0.25 0.125 0
0.25 0.09375 0
0.28125 0.09375 0
0.25 0.125 0
0.28125 0.125 0
0.28125 0.09375 0
0.3125 0.09375 0
0.28125 0.125 0
0.3125 0.125 0
0.3125 0.09375 0
0.34375 0.09375 0
0.3125 0.125 0
0.34375 0.125 0
0.34375 0.09375 0
0.375 0.09375 0
0.34375 0.125 0
0.375 0.125 0
0.375 0.09375 0
0.40625 0.09375 0
0.375 0.125 0
0.40625 0.125 0
0.40625 0.09375 0
0.4375 0.09375 0
0.40625 0.125 0
0.4375 0.125 0
0.4375 0.09375 0
0.46875 0.09375 0
0.4375 0.125 0
0.46875 0.125 0
0.46875 0.09375 0
0.5 0.09375 0
0.46875 0.125 0
0.5 0.125 0
0.5 0.09375 0
0.53125 0.09375 0
0.5 0.125 0
0.53125 0.125 0
0.53125 0.09375 0
0.5625 0.09375 0
0.53125 0.125 0
0.5625 0.125 0
0.5625 0.09375 0
0.59375 0.09375 0
0.5625 0.125 0
0.59375 0.125 0
0.59375 0.09375 0
0.625 0.09375 0
0.59375 0.125 0
0.625 0.125 0
0.625 0.09375 0
0.65625 0.09375 0
0.625 0.125 0
0.65625 0.125 0
0.65625 0.09375 0
0.6875 0.09375 0
0.65625 0.125 0
0.6875 0.125 0
0.6875 0.09375 0
0.71875 0.09375 0
0.6875 0.125 0
0.71875 0.125 0
0.71875 0.09375 0
0.75 0.09375 0
0.71875 0.125 0
0.75 0.125 0
0.75 0.09375 0
0.78125 0.09375 0
0.75 0.125 0
0.78125 0.125 0
0.78125 0.09375 0
0.8125 0.09375 0
0.78125 0.125 0
0.8125 0.125 0
0.8125 0.09375 0
0.84375 0.09375 0
0.8125 0.125 0
0.84375 0.125 0
0.84375 0.09375 0
0.875 0.09375 0
0.84375 0.125 0
0.875 0.125 0
0.875 0.09375 0
0.90625 0.09375 0
0.875 0.125 0
0.90625 0.125 0
0.90625 0.09375 0
0.9375 0.09375 0
0.90625 0.125 0
0.9375 0.125 0
0.9375 0.09375 0
0.96875 0.09375 0
0.9375 0.125 0
0.96875 0.125 0
0.96875 0.09375 0
1 0.09375 0
0.96875 0.125 0
1 0.125 0
0 0.125 0
0.03125 0.125 0
0 0.15625 0
0.03125 0.15625 0
0.03125 0.125 0
0.0625 0.125 0
0.03125 0.15625 0
0.0625 0.15625 0
0.0625 0.125 0
0.09375 0.125 0
0.0625 0.15625 0
0.09375 0.15625 0
0.09375 0.125 0
0.125 0.125 0
0.09375 0.15625 0
0.125 0.15625 0
0.125 0.125 0
0.15625 0.125 0
0.125 0.15625 0
0.15625 0.15625 0
0.15625 0.125 0
0.1875 0.125 0
0.15625 0.15625 0
0.1875 0.15625 0
0.1875 0.125 0
0.21875 0.125 0
0.1875 0.15625 0
0.21875 0.15625 0
0.21875 0.125 0
0.25 0.125 0
0.21875 0.15625 0
0.25 0.15625 0
0.25 0.125 0
0.28125 0.125 0
0.25 0.15625 0
0.28125 0.15625 0
0.28125 0.125 0
0.3125 0.125 0
0.28125 0.15625 0
0.3125 0.15625 0
0.3125 0.125 0
0.34375 0.125 0
0.3125 0.15625 0
0.34375 0.15625 0
0.34375 0.125 0
0.375 0.125 0
0.34375 0.15625 0
0.375 0.15625 0
0.375 0.125 0
0.40625 0.125 0
0.375 0.15625 0
0.40625 0.15625 0
0.40625 0.125 0
0.4375 0.125 0
0.40625 0.15625 0
0.4375 0.15625 0
0.4375 0.125 0
0.46875 0.125 0
0.4375 0.15625 0
0.46875 0.15625 0
0.46875 0.125 0
0.5 0.125 0
0.46875 0.15625 0
0.5 0.15625 0
0.5 0.125 0
0.53125 0.125 0
0.5 0.15625 0
0.53125 0.15625 0
0.53125 0.125 0
0.5625 0.125 0
0.53125 0.15625 0
0.5625 0.15625 0
0.5625 0.125 0
0.59375 0.125 0
0.5625 0.15625 0
0.59375 0.15625 0
0.59375 0.125 0
0.625 0.125 0
0.59375 0.15625 0
0.625 0.15625 0
0.625 0.125 0
0.65625 0.125 0
0.625 0.15625 0
0.65625 0.15625 0
0.65625 0.125 0
0.6875 0.125 0
0.65625 0.15625 0
0.6875 0.15625 0
0.6875 0.125 0
0.71875 0.125 0
0.6875 0.15625 0
0.71875 0.15625 0
0.71875 0.125 0
0.75 0.125 0
0.71875 0.15625 0
0.75 0.15625 0
0.75 0.125 0
0.78125 0.125 0
0.75 0.15625 0
0.78125 0.15625 0
0.78125 0.125 0
0.8125 0.125 0
0.78125 0.15625 0
0.8125 0.15625 0
0.8125 0.125 0
0.84375 0.125 0
0.8125 0.15625 0
0.84375 0.15625 0
0.84375 0.125 0
0.875 0.125 0
[...]
POINT_DATA 4096
SCALARS u double 1
LOOKUP_TABLE default
1.99526 1.99526 1.99526 1.99526 1.95564 1.95564 1.95564 1.95564 1.92315 1.92315 1.92315 1.92315 1.89146 1.89146 1.89146 1.89146 1.86002 1.86002 1.86002 1.86002 1.82862 1.82862 1.82862 1.82862 1.79728 1.79728 1.79728 1.79728 1.76597 1.76597 1.76597 1.76597 1.73467 1.73467 1.73467 1.73467 1.70338 1.70338 1.70338 1.70338 1.67209 1.67209 1.67209 1.67209 1.64082 1.64082 1.64082 1.64082 1.60954 1.60954 1.60954 1.60954 1.57827 1.57827 1.57827 1.57827 1.54701 1.54701 1.54701 1.54701 1.51574 1.51574 1.51574 1.51574 1.48448 1.48448 1.48448 1.48448 1.45322 1.45322 1.45322 1.45322 1.42196 1.42196 1.42196 1.42196 1.3907 1.3907 1.3907 1.3907 1.35944 1.35944 1.35944 1.35944 1.32818 1.32818 1.32818 1.32818 1.29693 1.29693 1.29693 1.29693 1.26567 1.26567 1.26567 1.26567 1.23441 1.23441 1.23441 1.23441 1.20316 1.20316 1.20316 1.20316 1.1719 1.1719 1.1719 1.1719 1.14065 1.14065 1.14065 1.14065 1.10939 1.10939 1.10939 1.10939 1.07814 1.07814 1.07814 1.07814 1.04688 1.04688 1.04688 1.04688 1.01563 1.01563 1.01563 1.01563 1.9962 1.9962 1.9962 1.9962 1.95845 1.95845 1.95845 1.95845 1.9254 1.9254 1.9254 1.9254 1.89288 1.89288 1.89288 1.89288 1.86122 1.86122 1.86122 1.86122 1.82956 1.82956 1.82956 1.82956 1.79807 1.79807 1.79807 1.79807 1.76663 1.76663 1.76663 1.76663 1.73523 1.73523 1.73523 1.73523 1.70387 1.70387 1.70387 1.70387 1.67252 1.67252 1.67252 1.67252 1.6412 1.6412 1.6412 1.6412 1.60988 1.60988 1.60988 1.60988 1.57857 1.57857 1.57857 1.57857 1.54727 1.54727 1.54727 1.54727 1.51598 1.51598 1.51598 1.51598 1.48469 1.48469 1.48469 1.48469 1.45341 1.45341 1.45341 1.45341 1.42212 1.42212 1.42212 1.42212 1.39085 1.39085 1.39085 1.39085 1.35957 1.35957 1.35957 1.35957 1.3283 1.3283 1.3283 1.3283 1.29703 1.29703 1.29703 1.29703 1.26576 1.26576 1.26576 1.26576 1.23449 1.23449 1.23449 1.23449 1.20322 1.20322 1.20322 1.20322 1.17195 1.17195 1.17195 1.17195 1.14069 1.14069 1.14069 1.14069 1.10942 1.10942 1.10942 1.10942 1.07816 1.07816 1.07816 1.07816 1.0469 1.0469 1.0469 1.0469 1.01563 1.01563 1.01563 1.01563 1.99646 1.99646 1.99646 1.99646 1.96043 1.96043 1.96043 1.96043 1.92685 1.92685 1.92685 1.92685 1.89415 1.89415 1.89415 1.89415 1.86221 1.86221 1.86221 1.86221 1.83047 1.83047 1.83047 1.83047 1.79884 1.79884 1.79884 1.79884 1.76723 1.76723 1.76723 1.76723 1.73578 1.73578 1.73578 1.73578 1.70435 1.70435 1.70435 1.70435 1.67294 1.67294 1.67294 1.67294 1.64157 1.64157 1.64157 1.64157 1.61021 1.61021 1.61021 1.61021 1.57886 1.57886 1.57886 1.57886 1.54752 1.54752 1.54752 1.54752 1.51621 1.51621 1.51621 1.51621 1.4849 1.4849 1.4849 1.4849 1.45359 1.45359 1.45359 1.45359 1.42229 1.42229 1.42229 1.42229 1.391 1.391 1.391 1.391 1.3597 1.3597 1.3597 1.3597 1.32842 1.32842 1.32842 1.32842 1.29713 1.29713 1.29713 1.29713 1.26585 1.26585 1.26585 1.26585 1.23457 1.23457 1.23457 1.23457 1.20328 1.20328 1.20328 1.20328 1.17201 1.17201 1.17201 1.17201 1.14073 1.14073 1.14073 1.14073 1.10946 1.10946 1.10946 1.10946 1.07818 1.07818 1.07818 1.07818 1.04691 1.04691 1.04691 1.04691 1.01564 1.01564 1.01564 1.01564 1.99664 1.99664 1.99664 1.99664 1.96073 1.96073 1.96073 1.96073 1.92768 1.92768 1.92768 1.92768 1.89517 1.89517 1.89517 1.89517 1.86302 1.86302 1.86302 1.86302 1.8312 1.8312 1.8312 1.8312 1.79949 1.79949 1.79949 1.79949 1.76782 1.76782 1.76782 1.76782 1.7363 1.7363 1.7363 1.7363 1.7048 1.7048 1.7048 1.7048 1.67335 1.67335 1.67335 1.67335 1.64194 1.64194 1.64194 1.64194 1.61053 1.61053 1.61053 1.61053 1.57915 1.57915 1.57915 1.57915 1.54777 1.54777 1.54777 1.54777 1.51643 1.51643 1.51643 1.51643 1.4851 1.4851 1.4851 1.4851 1.45377 1.45377 1.45377 1.45377 1.42245 1.42245 1.42245 1.42245 1.39114 1.39114 1.39114 1.39114 1.35983 1.35983 1.35983 1.35983 1.32853 1.32853 1.32853 1.32853 1.29723 1.29723 1.29723 1.29723 1.26593 1.26593 1.26593 1.26593 1.23464 1.23464 1.23464 1.23464 1.20335 1.20335 1.20335 1.20335 1.17206 1.17206 1.17206 1.17206 1.14077 1.14077 1.14077 1.14077 1.10949 1.10949 1.10949 1.10949 1.07821 1.07821 1.07821 1.07821 1.04692 1.04692 1.04692 1.04692 1.01564 1.01564 1.01564 1.01564 1.99693 1.99693 1.99693 1.99693 1.96062 1.96062 1.96062 1.96062 1.92816 1.92816 1.92816 1.92816 1.89587 1.89587 1.89587 1.89587 1.86375 1.86375 1.86375 1.86375 1.83188 1.83188 1.83188 1.83188 1.80005 1.80005 1.80005 1.80005 1.76836 1.76836 1.76836 1.76836 1.73677 1.73677 1.73677 1.73677 1.70519 1.70519 1.70519 1.70519 1.67371 1.67371 1.67371 1.67371 1.64226 1.64226 1.64226 1.64226 1.61083 1.61083 1.61083 1.61083 1.5794 1.5794 1.5794 1.5794 1.54802 1.54802 1.54802 1.54802 1.51665 1.51665 1.51665 1.51665 1.4853 1.4853 1.4853 1.4853 1.45395 1.45395 1.45395 1.45395 1.42261 1.42261 1.42261 1.42261 1.39127 1.39127 1.39127 1.39127 1.35995 1.35995 1.35995 1.35995 1.32864 1.32864 1.32864 1.32864 1.29733 1.29733 1.29733 1.29733 1.26602 1.26602 1.26602 1.26602 1.23471 1.23471 1.23471 1.23471 1.20341 1.20341 1.20341 1.20341 1.17211 1.17211 1.17211 1.17211 1.14081 1.14081 1.14081 1.14081 1.10952 1.10952 1.10952 1.10952 1.07823 1.07823 1.07823 1.07823 1.04694 1.04694 1.04694 1.04694 1.01565 1.01565 1.01565 1.01565 1.99675 1.99675 1.99675 1.99675 1.96113 1.96113 1.96113 1.96113 1.92862 1.92862 1.92862 1.92862 1.89629 1.89629 1.89629 1.89629 1.86424 1.86424 1.86424 1.86424 1.83234 1.83234 1.83234 1.83234 1.80047 1.80047 1.80047 1.80047 1.76878 1.76878 1.76878 1.76878 1.73715 1.73715 1.73715 1.73715 1.70557 1.70557 1.70557 1.70557 1.67404 1.67404 1.67404 1.67404 1.64256 1.64256 1.64256 1.64256 1.61109 1.61109 1.61109 1.61109 1.57965 1.57965 1.57965 1.57965 1.54825 1.54825 1.54825 1.54825 1.51686 1.51686 1.51686 1.51686 1.48548 1.48548 1.48548 1.48548 1.45411 1.45411 1.45411 1.45411 1.42275 1.42275 1.42275 1.42275 1.39141 1.39141 1.39141 1.39141 1.36007 1.36007 1.36007 1.36007 1.32874 1.32874 1.32874 1.32874 1.29742 1.29742 1.29742 1.29742 1.2661 1.2661 1.2661 1.2661 1.23478 1.23478 1.23478 1.23478 1.20347 1.20347 1.20347 1.20347 1.17216 1.17216 1.17216 1.17216 1.14085 1.14085 1.14085 1.14085 1.10955 1.10955 1.10955 1.10955 1.07825 1.07825 1.07825 1.07825 1.04695 1.04695 1.04695 1.04695 1.01565 1.01565 1.01565 1.01565 1.99675 1.99675 1.99675 1.99675 1.96058 1.96058 1.96058 1.96058 1.92848 1.92848 1.92848 1.92848 1.89642 1.89642 1.89642 1.89642 1.86452 1.86452 1.86452 1.86452 1.83269 1.83269 1.83269 1.83269 1.80088 1.80088 1.80088 1.80088 1.76915 1.76915 1.76915 1.76915 1.73751 1.73751 1.73751 1.73751 1.70591 1.70591 1.70591 1.70591 1.67433 1.67433 1.67433 1.67433 1.64282 1.64282 1.64282 1.64282 1.61133 1.61133 1.61133 1.61133 1.57989 1.57989 1.57989 1.57989 1.54846 1.54846 1.54846 1.54846 1.51706 1.51706 1.51706 1.51706 1.48566 1.48566 1.48566 1.48566 1.45428 1.45428 1.45428 1.45428 1.42289 1.42289 1.42289 1.42289 1.39153 1.39153 1.39153 1.39153 1.36019 1.36019 1.36019 1.36019 1.32884 1.32884 1.32884 1.32884 1.29751 1.29751 1.29751 1.29751 1.26617 1.26617 1.26617 1.26617 1.23485 1.23485 1.23485 1.23485 1.20352 1.20352 1.20352 1.20352 1.17221 1.17221 1.17221 1.17221 1.14089 1.14089 1.14089 1.14089 1.10958 1.10958 1.10958 1.10958 1.07827 1.07827 1.07827 1.07827 1.04696 1.04696 1.04696 1.04696 1.01565 1.01565 1.01565 1.01565 1.99691 1.99691 1.99691 1.99691 1.95995 1.95995 1.95995 1.95995 1.92832 1.92832 1.92832 1.92832 1.89647 1.89647 1.89647 1.89647 1.86468 1.86468 1.86468 1.86468 1.8329 1.8329 1.8329 1.8329 1.80113 1.80113 1.80113 1.80113 1.7694 1.7694 1.7694 1.7694 1.73775 1.73775 1.73775 1.73775 1.70617 1.70617 1.70617 1.70617 1.6746 1.6746 1.6746 1.6746 1.64306 1.64306 1.64306 1.64306 1.61156 1.61156 1.61156 1.61156 1.58009 1.58009 1.58009 1.58009 1.54866 1.54866 1.54866 1.54866 1.51724 1.51724 1.51724 1.51724 1.48582 1.48582 1.48582 1.48582 1.45443 1.45443 1.45443 1.45443 1.42304 1.42304 1.42304 1.42304 1.39165 1.39165 1.39165 1.39165 1.36029 1.36029 1.36029 1.36029 1.32894 1.32894 1.32894 1.32894 1.29759 1.29759 1.29759 1.29759 1.26625 1.26625 1.26625 1.26625 1.23491 1.23491 1.23491 1.23491 1.20358 1.20358 1.20358 1.20358 1.17225 1.17225 1.17225 1.17225 1.14093 1.14093 1.14093 1.14093 1.10961 1.10961 1.10961 1.10961 1.07829 1.07829 1.07829 1.07829 1.04697 1.04697 1.04697 1.04697 1.01566 1.01566 1.01566 1.01566 1.99689 1.99689 1.99689 1.99689 1.9597 1.9597 1.9597 1.9597 1.92822 1.92822 1.92822 1.92822 1.89652 1.89652 1.89652 1.89652 1.86482 1.86482 1.86482 1.86482 1.83307 1.83307 1.83307 1.83307 1.80134 1.80134 1.80134 1.80134 1.76963 1.76963 1.76963 1.76963 1.73799 1.73799 1.73799 1.73799 1.70639 1.70639 1.70639 1.70639 1.67482 1.67482 1.67482 1.67482 1.64327 1.64327 1.64327 1.64327 1.61178 1.61178 1.61178 1.61178 1.58029 1.58029 1.58029 1.58029 1.54884 1.54884 1.54884 1.54884 1.5174 1.5174 1.5174 1.5174 1.48597 1.48597 1.48597 1.48597 1.45455 1.45455 1.45455 1.45455 1.42315 1.42315 1.42315 1.42315 1.39176 1.39176 1.39176 1.39176 1.36039 1.36039 1.36039 1.36039 1.32902 1.32902 1.32902 1.32902 1.29766 1.29766 1.29766 1.29766 1.26631 1.26631 1.26631 1.26631 1.23497 1.23497 1.23497 1.23497 1.20363 1.20363 1.20363 1.20363 1.17229 1.17229 1.17229 1.17229 1.14096 1.14096 1.14096 1.14096 1.10963 1.10963 1.10963 1.10963 1.07831 1.07831 1.07831 1.07831 1.04698 1.04698 1.04698 1.04698 1.01566 1.01566 1.01566 1.01566 1.99691 1.99691 1.99691 1.99691 1.9601 1.9601 1.9601 1.9601 1.92846 1.92846 1.92846 1.92846 1.89673 1.89673 1.89673 1.89673 1.86499 1.86499 1.86499 1.86499 1.83325 1.83325 1.83325 1.83325 1.80153 1.80153 1.80153 1.80153 1.76983 1.76983 1.76983 1.76983 1.7382 1.7382 1.7382 1.7382 1.7066 1.7066 1.7066 1.7066 1.675 1.675 1.675 1.675 1.64347 1.64347 1.64347 1.64347 1.61194 1.61194 1.61194 1.61194 1.58044 1.58044 1.58044 1.58044 1.54898 1.54898 1.54898 1.54898 1.51753 1.51753 1.51753 1.51753 1.4861 1.4861 1.4861 1.4861 1.45467 1.45467 1.45467 1.45467 1.42325 1.42325 1.42325 1.42325 1.39186 1.39186 1.39186 1.39186 1.36047 1.36047 1.36047 1.36047 1.3291 1.3291 1.3291 1.3291 1.29773 1.29773 1.29773 1.29773 1.26637 1.26637 1.26637 1.26637 1.23502 1.23502 1.23502 1.23502 1.20367 1.20367 1.20367 1.20367 1.17232 1.17232 1.17232 1.17232 1.14099 1.14099 1.14099 1.14099 1.10965 1.10965 1.10965 1.10965 1.07832 1.07832 1.07832 1.07832 1.04699 1.04699 1.04699 1.04699 1.01566 1.01566 1.01566 1.01566 1.99673 1.99673 1.99673 1.99673 1.96108 1.96108 1.96108 1.96108 1.92884 1.92884 1.92884 1.92884 1.89698 1.89698 1.89698 1.89698 1.86516 1.86516 1.86516 1.86516 1.83341 1.83341 1.83341 1.83341 1.80169 1.80169 1.80169 1.80169 1.77 1.77 1.77 1.77 1.73836 1.73836 1.73836 1.73836 1.70675 1.70675 1.70675 1.70675 1.67516 1.67516 1.67516 1.67516 1.64361 1.64361 1.64361 1.64361 1.61208 1.61208 1.61208 1.61208 1.58058 1.58058 1.58058 1.58058 1.54912 1.54912 1.54912 1.54912 1.51767 1.51767 1.51767 1.51767 1.48621 1.48621 1.48621 1.48621 1.45477 1.45477 1.45477 1.45477 1.42335 1.42335 1.42335 1.42335 1.39194 1.39194 1.39194 1.39194 1.36055 1.36055 1.36055 1.36055 1.32917 1.32917 1.32917 1.32917 1.29779 1.29779 1.29779 1.29779 1.26643 1.26643 1.26643 1.26643 1.23507 1.23507 1.23507 1.23507 1.20371 1.20371 1.20371 1.20371 1.17236 1.17236 1.17236 1.17236 1.14101 1.14101 1.14101 1.14101 1.10967 1.10967 1.10967 1.10967 1.07834 1.07834 1.07834 1.07834 1.047 1.047 1.047 1.047 1.01567 1.01567 1.01567 1.01567 1.99695 1.99695 1.99695 1.99695 1.96069 1.96069 1.96069 1.96069 1.92879 1.92879 1.92879 1.92879 1.89699 1.89699 1.89699 1.89699 1.86522 1.86522 1.86522 1.86522 1.8335 1.8335 1.8335 1.8335 1.8018 1.8018 1.8018 1.8018 1.77012 1.77012 1.77012 1.77012 1.73846 1.73846 1.73846 1.73846 1.70687 1.70687 1.70687 1.70687 1.67529 1.67529 1.67529 1.67529 1.64375 1.64375 1.64375 1.64375 1.61221 1.61221 1.61221 1.61221 1.5807 1.5807 1.5807 1.5807 1.54922 1.54922 1.54922 1.54922 1.51775 1.51775 1.51775 1.51775 1.48631 1.48631 1.48631 1.48631 1.45486 1.45486 1.45486 1.45486 1.42344 1.42344 1.42344 1.42344 1.39202 1.39202 1.39202 1.39202 1.36062 1.36062 1.36062 1.36062 1.32923 1.32923 1.32923 1.32923 1.29785 1.29785 1.29785 1.29785 1.26648 1.26648 1.26648 1.26648 1.23511 1.23511 1.23511 1.23511 1.20374 1.20374 1.20374 1.20374 1.17238 1.17238 1.17238 1.17238 1.14103 1.14103 1.14103 1.14103 1.10969 1.10969 1.10969 1.10969 1.07835 1.07835 1.07835 1.07835 1.04701 1.04701 1.04701 1.04701 1.01567 1.01567 1.01567 1.01567 1.99692 1.99692 1.99692 1.99692 1.96034 1.96034 1.96034 1.96034 1.92867 1.92867 1.92867 1.92867 1.89699 1.89699 1.89699 1.89699 1.86528 1.86528 1.86528 1.86528 1.83358 1.83358 1.83358 1.83358 1.80189 1.80189 1.80189 1.80189 1.77021 1.77021 1.77021 1.77021 1.73856 1.73856 1.73856 1.73856 1.70696 1.70696 1.70696 1.70696 1.67537 1.67537 1.67537 1.67537 1.64383 1.64383 1.64383 1.64383 1.61232 1.61232 1.61232 1.61232 1.5808 1.5808 1.5808 1.5808 1.54931 1.54931 1.54931 1.54931 1.51783 1.51783 1.51783 1.51783 1.48637 1.48637 1.48637 1.48637 1.45493 1.45493 1.45493 1.45493 1.4235 1.4235 1.4235 1.4235 1.39208 1.39208 1.39208 1.39208 1.36067 1.36067 1.36067 1.36067 1.32928 1.32928 1.32928 1.32928 1.2979 1.2979 1.2979 1.2979 1.26652 1.26652 1.26652 1.26652 1.23514 1.23514 1.23514 1.23514 1.20377 1.20377 1.20377 1.20377 1.1724 1.1724 1.1724 1.1724 1.14105 1.14105 1.14105 1.14105 1.1097 1.1097 1.1097 1.1097 1.07836 1.07836 1.07836 1.07836 1.04701 1.04701 1.04701 1.04701 1.01567 1.01567 1.01567 1.01567 1.99683 1.99683 1.99683 1.99683 1.96042 1.96042 1.96042 1.96042 1.92871 1.92871 1.92871 1.92871 1.89703 1.89703 1.89703 1.89703 1.86534 1.86534 1.86534 1.86534 1.83365 1.83365 1.83365 1.83365 1.80196 1.80196 1.80196 1.80196 1.77029 1.77029 1.77029 1.77029 1.73865 1.73865 1.73865 1.73865 1.70704 1.70704 1.70704 1.70704 1.67546 1.67546 1.67546 1.67546 1.64391 1.64391 1.64391 1.64391 1.61238 1.61238 1.61238 1.61238 1.58086 1.58086 1.58086 1.58086 1.54937 1.54937 1.54937 1.54937 1.51789 1.51789 1.51789 1.51789 1.48642 1.48642 1.48642 1.48642 1.45497 1.45497 1.45497 1.45497 1.42354 1.42354 1.42354 1.42354 1.39212 1.39212 1.39212 1.39212 1.36071 1.36071 1.36071 1.36071 1.32931 1.32931 1.32931 1.32931 1.29792 1.29792 1.29792 1.29792 1.26654 1.26654 1.26654 1.26654 1.23516 1.23516 1.23516 1.23516 1.20379 1.20379 1.20379 1.20379 1.17242 1.17242 1.17242 1.17242 1.14106 1.14106 1.14106 1.14106 1.10971 1.10971 1.10971 1.10971 1.07836 1.07836 1.07836 1.07836 1.04702 1.04702 1.04702 1.04702 1.01567 1.01567 1.01567 1.01567 1.99691 1.99691 1.99691 1.99691 1.96039 1.96039 1.96039 1.96039 1.92874 1.92874 1.92874 1.92874 1.89707 1.89707 1.89707 1.89707 1.86539 1.86539 1.86539 1.86539 1.83371 1.83371 1.83371 1.83371 1.80203 1.80203 1.80203 1.80203 1.77036 1.77036 1.77036 1.77036 1.73872 1.73872 1.73872 1.73872 1.70711 1.70711 1.70711 1.70711 1.67552 1.67552 1.67552 1.67552 1.64398 1.64398 1.64398 1.64398 1.61244 1.61244 1.61244 1.61244 1.58092 1.58092 1.58092 1.58092 1.54942 1.54942 1.54942 1.54942 1.51794 1.51794 1.51794 1.51794 1.48647 1.48647 1.48647 1.48647 1.45501 1.45501 1.45501 1.45501 1.42357 1.42357 1.42357 1.42357 1.39214 1.39214 1.39214 1.39214 1.36072 1.36072 1.36072 1.36072 1.32933 1.32933 1.32933 1.32933 1.29794 1.29794 1.29794 1.29794 1.26655 1.26655 1.26655 1.26655 1.23517 1.23517 1.23517 1.23517 1.2038 1.2038 1.2038 1.2038 1.17243 1.17243 1.17243 1.17243 1.14107 1.14107 1.14107 1.14107 1.10972 1.10972 1.10972 1.10972 1.07837 1.07837 1.07837 1.07837 1.04702 1.04702 1.04702 1.04702 1.01567 1.01567 1.01567 1.01567 1.99683 1.99683 1.99683 1.99683 1.96048 1.96048 1.96048 1.96048 1.9288 1.9288 1.9288 1.9288 1.89713 1.89713 1.89713 1.89713 1.86545 1.86545 1.86545 1.86545 1.83376 1.83376 1.83376 1.83376 1.80208 1.80208 1.80208 1.80208 1.77042 1.77042 1.77042 1.77042 1.73878 1.73878 1.73878 1.73878 1.70714 1.70714 1.70714 1.70714 1.67554 1.67554 1.67554 1.67554 1.64398 1.64398 1.64398 1.64398 1.61245 1.61245 1.61245 1.61245 1.58095 1.58095 1.58095 1.58095 1.54945 1.54945 1.54945 1.54945 1.51797 1.51797 1.51797 1.51797 1.48648 1.48648 1.48648 1.48648 1.45503 1.45503 1.45503 1.45503 1.42359 1.42359 1.42359 1.42359 1.39215 1.39215 1.39215 1.39215 1.36073 1.36073 1.36073 1.36073 1.32934 1.32934 1.32934 1.32934 1.29795 1.29795 1.29795 1.29795 1.26656 1.26656 1.26656 1.26656 1.23518 1.23518 1.23518 1.23518 1.2038 1.2038 1.2038 1.2038 1.17243 1.17243 1.17243 1.17243 1.14108 1.14108 1.14108 1.14108 1.10972 1.10972 1.10972 1.10972 1.07837 1.07837 1.07837 1.07837 1.04702 1.04702 1.04702 1.04702 1.01567 1.01567 1.01567 1.01567 1.99694 1.99694 1.99694 1.99694 1.96055 1.96055 1.96055 1.96055 1.92889 1.92889 1.92889 1.92889 1.89722 1.89722 1.89722 1.89722 1.86552 1.86552 1.86552 1.86552 1.83382 1.83382 1.83382 1.83382 1.80214 1.80214 1.80214 1.80214 1.77045 1.77045 1.77045 1.77045 1.73879 1.73879 1.73879 1.73879 1.70715 1.70715 1.70715 1.70715 1.67555 1.67555 1.67555 1.67555 1.64398 1.64398 1.64398 1.64398 1.61243 1.61243 1.61243 1.61243 1.58094 1.58094 1.58094 1.58094 1.54944 1.54944 1.54944 1.54944 1.51796 1.51796 1.51796 1.51796 1.48649 1.48649 1.48649 1.48649 1.45504 1.45504 1.45504 1.45504 1.42359 1.42359 1.42359 1.42359 1.39216 1.39216 1.39216 1.39216 1.36074 1.36074 1.36074 1.36074 1.32934 1.32934 1.32934 1.32934 1.29795 1.29795 1.29795 1.29795 1.26656 1.26656 1.26656 1.26656 1.23518 1.23518 1.23518 1.23518 1.20381 1.20381 1.20381 1.20381 1.17243 1.17243 1.17243 1.17243 1.14107 1.14107 1.14107 1.14107 1.10972 1.10972 1.10972 1.10972 1.07837 1.07837 1.07837 1.07837 1.04702 1.04702 1.04702 1.04702 1.01567 1.01567 1.01567 1.01567 1.99675 1.99675 1.99675 1.99675 1.96132 1.96132 1.96132 1.96132 1.92929 1.92929 1.92929 1.92929 1.89743 1.89743 1.89743 1.89743 1.86562 1.86562 1.86562 1.86562 1.83385 1.83385 1.83385 1.83385 1.80213 1.80213 1.80213 1.80213 1.77046 1.77046 1.77046 1.77046 1.73879 1.73879 1.73879 1.73879 1.70715 1.70715 1.70715 1.70715 1.67554 1.67554 1.67554 1.67554 1.64397 1.64397 1.64397 1.64397 1.6124 1.6124 1.6124 1.6124 1.58091 1.58091 1.58091 1.58091 1.54943 1.54943 1.54943 1.54943 1.51795 1.51795 1.51795 1.51795 1.48648 1.48648 1.48648 1.48648 1.45503 1.45503 1.45503 1.45503 1.42358 1.42358 1.42358 1.42358 1.39215 1.39215 1.39215 1.39215 1.36073 1.36073 1.36073 1.36073 1.32933 1.32933 1.32933 1.32933 1.29794 1.29794 1.29794 1.29794 1.26656 1.26656 1.26656 1.26656 1.23518 1.23518 1.23518 1.23518 1.2038 1.2038 1.2038 1.2038 1.17242 1.17242 1.17242 1.17242 1.14107 1.14107 1.14107 1.14107 1.10972 1.10972 1.10972 1.10972 1.07837 1.07837 1.07837 1.07837 1.04702 1.04702 1.04702 1.04702 1.01567 1.01567 1.01567 1.01567 1.99697 1.99697 1.99697 1.99697 1.96123 1.96123 1.96123 1.96123 1.92936 1.92936 1.92936 1.92936 1.89748 1.89748 1.89748 1.89748 1.86564 1.86564 1.86564 1.86564 1.83384 1.83384 1.83384 1.83384 1.8021 1.8021 1.8021 1.8021 1.77041 1.77041 1.77041 1.77041 1.73875 1.73875 1.73875 1.73875 1.70711 1.70711 1.70711 1.70711 1.6755 1.6755 1.6755 1.6755 1.64393 1.64393 1.64393 1.64393 1.61236 1.61236 1.61236 1.61236 1.58087 1.58087 1.58087 1.58087 1.54938 1.54938 1.54938 1.54938 1.51791 1.51791 1.51791 1.51791 1.48644 1.48644 1.48644 1.48644 1.45499 1.45499 1.45499 1.45499 1.42355 1.42355 1.42355 1.42355 1.39213 1.39213 1.39213 1.39213 1.36072 1.36072 1.36072 1.36072 1.32932 1.32932 1.32932 1.32932 1.29793 1.29793 1.29793 1.29793 1.26654 1.26654 1.26654 1.26654 1.23516 1.23516 1.23516 1.23516 1.20378 1.20378 1.20378 1.20378 1.17241 1.17241 1.17241 1.17241 1.14106 1.14106 1.14106 1.14106 1.10971 1.10971 1.10971 1.10971 1.07836 1.07836 1.07836 1.07836 1.04702 1.04702 1.04702 1.04702 1.01567 1.01567 1.01567 1.01567 1.99674 1.99674 1.99674 1.99674 1.96197 1.96197 1.96197 1.96197 1.92959 1.92959 1.92959 1.92959 1.89746 1.89746 1.89746 1.89746 1.8656 1.8656 1.8656 1.8656 1.83379 1.83379 1.83379 1.83379 1.80205 1.80205 1.80205 1.80205 1.77033 1.77033 1.77033 1.77033 1.73867 1.73867 1.73867 1.73867 1.70705 1.70705 1.70705 1.70705 1.67544 1.67544 1.67544 1.67544 1.64386 1.64386 1.64386 1.64386 1.61231 1.61231 1.61231 1.61231 1.58081 1.58081 1.58081 1.58081 1.54933 1.54933 1.54933 1.54933 1.51786 1.51786 1.51786 1.51786 1.48639 1.48639 1.48639 1.48639 1.45494 1.45494 1.45494 1.45494 1.4235 1.4235 1.4235 1.4235 1.39209 1.39209 1.39209 1.39209 1.36068 1.36068 1.36068 1.36068 1.32929 1.32929 1.32929 